64
Lattice="8.4 0.0 0.0 0.0 8.4 0.0 0.0 0.0 8.4" Properties=species:S:1:pos:R:3:momenta:R:3:forces:R:3 energy=-330.89178466796875 free_energy=-330.89178466796875 stress="-0.07359086722135544 0.0002087090106215328 -0.0001270094799110666 0.0002087090106215328 -0.07170530408620834 -0.0002729997504502535 -0.0001270094799110666 -0.0002729997504502535 -0.07281187921762466" pbc="T T T"
Mg       0.06748674       0.00306007       0.06373800       0.11023526      -0.62637740       0.03388375       0.00261131       0.14029855      -0.06801279
O        2.15100610      -0.04532981       0.02906034      -0.24732208       0.41333679       0.57176628      -0.10000014       0.17752521       0.20813636
Mg       0.06453979       2.09311280       2.22772949       0.50240214       0.17854969       0.85495202       0.03014935       0.17688355      -0.27445632
O        2.21094883       2.08787806       2.14418289      -0.00862785       0.68332691       0.00873482      -1.03015161      -0.14163446       0.39042574
Co       2.12969000       0.03071833       2.13092804       0.69730069      -0.47156580       0.79324492      -0.16731352       0.08969668       0.42703208
O        0.00605241       0.09102119       2.12329693       0.57837050      -0.49072581       1.04385549       0.12909783      -0.53903043       0.26582980
Ni       2.18527805       2.13229658       0.08223320       1.06699942       0.96870297      -0.03540604      -0.36781615      -0.13562047       0.02766639
O        0.06403625       2.09561304       0.07511536       0.03380827      -0.16489313      -0.11264806       0.01721068       0.01337579       0.26132205
Ni      -0.09729691      -0.00284927       4.29210341      -0.14157357      -1.83977553       1.66341821       0.99922335      -0.24625973      -0.15038699
O        2.06224782       0.02201582       4.32569981       0.33754270      -0.60074610       0.16215431       0.26156154       0.11911412      -0.38926095
Ni       0.06308055       2.11053595       6.35091716       0.99381648       0.58276527       0.22369231      -0.12078880       0.15969601       0.30215025
O        2.16085090       2.13172665       6.45200863      -0.25492199      -0.45802600       0.25546605      -0.18813100      -0.08212794      -0.44014192
Mg       2.13043095       0.04084451       6.34203078      -0.35539686      -0.21866311       0.27389979       0.28570592      -0.18485996       0.20154254
O        0.13155868       0.03998331       6.38210571       1.00715866       0.48923115      -0.86813031      -0.76753223      -0.40141726       0.14839910
Zn       2.10378575       2.15253699       4.32696450       0.42238380      -1.68963067       0.25420587       0.03993252      -0.21352324      -0.17654839
O       -0.07784898       2.06199649       4.26578025       0.40012649       0.11686124       0.83215834       0.75784528       0.63087767       0.13993627
Mg       0.02712510       4.19192849       0.13989894       0.72617268      -0.18124745      -0.49539831       0.24119897      -0.24679580      -0.43338022
O        2.09379594       4.17561968       0.08184511      -0.81076684       1.14477607      -0.31170026       0.16324611       0.51660472       0.23765895
Zn      -0.00227125       6.25589198       2.11700053       0.24432578       0.14512786       0.98105858      -0.06821512       0.57981801       0.80837357
O        2.08388062       6.36670693       2.21297131      -0.59338409      -0.60393650       0.08935886       0.36363712       0.01698445      -0.39439282
Cu       2.11065006       4.20956158       2.24468814      -1.14242798       0.36354687      -0.84136865       0.59222627      -0.09625325      -0.19875765
O        0.15034095       4.20361208       2.22973102       0.45493214       0.12109192       0.20678450      -0.70215631      -0.52896237       0.09083554
Mg       2.13781094       6.29374220       0.12967963       0.19171318       1.09487590       0.91008710      -0.02986160      -0.31663656      -0.06688678
O       -0.00745571       6.27386040       0.10413441       0.02718860      -1.08725421       1.02908634       0.48217279       0.22240573      -0.18185136
Mg      -0.04540103       4.23647538       4.32975518       0.35974904      -0.24427425       0.86125183       0.37209600      -0.22441216       0.17090116
O        2.10006307       4.21581917       4.44036080       0.48540958       0.62940360       0.30728975       0.03108728      -0.00813183      -0.52585870
Mg       0.04518874       6.31812622       6.43182260       0.31119118       1.06896260       0.36141480       0.17663264      -0.00273386      -0.41931570
O        2.10406912       6.30929475       6.51308757      -0.14799135       0.11642070       0.21783138      -0.35979396       0.35762429      -0.72697955
Ni       2.16025649       4.26924636       6.43732255       1.56944758       0.51850384      -0.91802661      -0.38913915      -0.45553729       0.31126150
O        0.04548798       4.21717483       6.44067349       0.06175156      -0.45994301       0.02871346      -0.15412149      -0.06015554      -0.22597915
Ni       2.10612486       6.28423801       4.26171275       1.56279540      -0.61941227       0.73379689      -0.47888416       0.49116498       0.45361394
O        0.03324044       6.28144286       4.29825376      -0.37664543       0.39176128      -0.40190272      -0.30206010       0.19707869      -0.07400724
Zn       4.22595442       0.02511299       0.02164656      -0.19965404      -1.93002939       1.50452392       0.26263416      -0.06005450       0.02976456
O        6.38762415      -0.09365467       0.08896656       0.00773381       1.31025388       0.44011290      -0.31426859       0.52545553       0.01800659
Zn       4.22680014       2.14119362       2.15622038      -0.31466290      -2.57823296       0.86177178       0.44373375       0.17036353       0.31968147
O        6.37347466       2.10186534       2.22169353       0.07638362       0.47980123       0.17195914       0.04248278       0.15302444      -0.32546771
Mg       6.33639827       0.01255375       2.15204797       0.31897673      -0.44580305       0.70118809      -0.01696170       0.07482913       0.04043418
O        4.26425046       0.04055928       2.18475634       0.07934274       0.74694424      -0.12724347      -0.26140773      -0.27993232      -0.08132374
Zn       6.40264115       2.03353541       0.06602984      -1.73885881       1.59218160       0.34368942      -0.25984102       0.19929883       0.08047736
O        4.25340192       2.13385647       0.12666584       0.10456831      -0.63558065       0.48911810       0.21355756      -0.01582056      -0.55762994
Ni       4.19099237       0.07393860       4.25439751       0.31359971       1.91975584       1.51471113       0.02629786       0.00403466       0.06206516
O        6.31583169       0.01959220       4.17621841      -0.29744432       0.40357578       0.23029788      -0.50880218      -0.37936604       0.44391814
Zn       4.22961243       2.17557424       6.36458689      -1.58827264      -1.18350202       1.00574907       0.12096737      -0.37437093       0.21269821
O        6.35742837       2.10955427       6.37056898       0.59002134      -0.14057433       0.41117163       0.01083528       0.06382710       0.08711284
Cu       6.30772447      -0.04933450       6.34279354      -0.56254005      -0.88415229      -0.52469718       0.22408250      -0.00914706       0.17145479
O        4.27191205       0.06439580       6.31787092      -0.12538617      -0.06566398       0.56592547      -0.24249686      -0.01455537       0.17228836
Ni       6.29602151       2.06103238       4.28416564       0.37758741       0.85370105       0.68022212       0.02537026       0.40616375       0.04940009
O        4.26570078       2.19970933       4.27201241       0.39840674       1.24813522      -0.17194156      -0.30153787      -0.46483305       0.07083368
Cu       4.29225621       4.22922840       0.10685592      -2.20428016      -0.21015952      -0.84554466      -0.31192660      -0.18112335       0.05091044
O        6.37390909       4.21645590       0.21769802       0.43902744       0.74221182       0.47985284       0.06705827      -0.05983347      -0.35991973
Zn       4.16594429       6.36659612       2.09500678      -0.10118694       0.48759585       1.79375595       0.15210614      -0.31002897       0.43101948
O        6.22782280       6.34290506       2.16627007       0.22838398      -0.13649922       0.06022058       0.43503636      -0.29172555       0.34056932
Co       6.37854167       4.20487447       2.23755801      -0.27485917       0.44187335       0.92276849      -0.37352860      -0.05802578      -0.04500498
O        4.18854676       4.23526458       2.25656242      -0.57072908      -0.08298729      -0.43806370      -0.15669341       0.45391825       0.20056881
Mg       6.33521415       6.28655155       0.12880192      -0.10721087       1.22930160       0.09890493      -0.21751267      -0.23741382      -0.60217655
O        4.25679735       6.24394440       0.00926032       0.11890639      -0.21107874      -0.56227982      -0.22247171       0.29564685       0.05629024
Ni       4.18717440       4.27346090       4.37934539       1.25960456       0.63127040      -0.74930115       0.12472779      -0.14688730      -0.83601344
O        6.30194622       4.19845395       4.29509858       0.16355346       0.16527078      -0.24577548       0.10279002       0.11436388      -0.07709305
Cu       4.11810634       6.34054215       6.37590123       0.03563572       0.31223411       1.51797775       0.49485669       0.10494478       0.20177531
O        6.46405772       6.23205209       6.42967255      -0.49642009      -0.07496680      -0.09438545      -0.65525746       0.17364430      -0.23537770
Co       6.33776748       4.20607896       6.41205887      -0.19301339       0.00132646       0.85107703       0.05416534       0.10265405       0.20268482
O        4.20477574       4.20175680       6.39253799      -0.61099133       0.12013748      -0.28256435       0.31211400       0.26227441       0.09692312
Co       6.18166508       6.25810428       4.28300814       0.83673999      -0.02312283      -0.22798943       0.48805946       0.31627566       0.18783900
O        4.09600982       6.43040875       4.36309565       0.44216599      -0.10393478      -0.20138830       0.52216130      -0.54265749      -0.10557900
