64
Lattice="8.4 0.0 0.0 0.0 8.4 0.0 0.0 0.0 8.4" Properties=species:S:1:pos:R:3:momenta:R:3:forces:R:3 energy=-330.8130187988281 free_energy=-330.8130187988281 stress="-0.07724441587924957 -0.0005788275739178061 -3.1043713534018025e-05 -0.0005788275739178061 -0.07457870244979858 -0.0003666732518468052 -3.1043713534018025e-05 -0.0003666732518468052 -0.0677187517285347" pbc="T T T"
Mg      -0.01052927      -0.02847053      -0.07092576      -0.03000203      -0.37826048      -0.10785315      -0.05390909      -0.04785524      -0.15523428
O        2.03722798      -0.06627866      -0.13297478      -0.74169610      -0.43945379       0.18152817       0.35697621       0.24627393       0.36396024
Mg       0.00597748       2.05935897       2.02788799       0.64932162      -1.06023809      -0.09882165       0.00949212      -0.19187269       0.07009130
O        2.02739689       2.07177151       2.00787878       0.20664635      -0.10851894      -0.05654548       0.27972654      -0.21681507      -0.20782325
Co       2.06130741      -0.03957676       2.00308143      -0.01106594      -0.78285897       1.47115199      -0.00901917       0.36178547       0.20324497
O       -0.02330152      -0.02381703       2.02535805      -0.35135647       0.17482277       0.37559710       0.02230317      -0.25232634       0.29842728
Ni       2.08317791       2.05517969      -0.09391062       2.40375783      -3.03678336      -0.58408545      -0.27410659       0.13556305       0.05094788
O       -0.02538626       2.04548908      -0.12697012      -0.19020441      -0.78610819      -0.23100955       0.32462230      -0.01108979       0.40887922
Ni      -0.03418909      -0.03270650       4.22361116       0.73863473      -0.16524064       1.53899579       0.08700917       0.05011997      -0.48507398
O        2.07155516      -0.10827155       4.16723087       0.71026093       0.42689350      -0.19765076       0.03727058       0.21499711      -0.27556416
Ni      -0.04459204       2.11671314       6.21474640      -0.60633201      -0.19176276      -0.83995626       0.44762462      -0.75243270      -0.22955984
O        2.08154632       2.09843828       6.25849982      -0.08033577      -0.75663671      -0.51333801      -0.14823672      -0.20933600      -0.27100641
Mg       2.12755195      -0.07991119       6.15503176      -0.02194840       0.23195149       0.56336498      -0.49819246       0.27845424       0.81367195
O        0.08272774      -0.06621453       6.28874546       0.29742553      -0.21531494      -0.28172380      -0.56948233       0.26669115      -0.49227214
Zn       2.12082549       2.03243272       4.10853942      -1.72396876       0.75402474      -0.18162643      -0.48835829       0.26647255       0.20003924
O        0.00826791       2.06916817       4.11478349       1.01470948      -0.71857150      -0.01799873      -0.18619883      -0.11546461       0.19587511
Mg       0.00724208       4.14868739      -0.11244725      -0.41074449       0.62484707       0.05783576      -0.21434154       0.17064440       0.05459928
O        1.99662825       4.25669299      -0.03722821      -0.63868374       0.05347937       0.09815577       0.13769546      -0.56827861       0.07432491
Zn      -0.06209152       6.24794866       2.06760631      -0.33401849      -0.65317013      -1.31430630       0.08434528       0.06684905      -0.31711727
O        2.05363311       6.33374360       2.03312105      -0.63995637       0.82937848      -0.92706207       0.09229878      -0.24055715       0.34990078
Cu       2.06240720       4.20829499       2.00723609      -1.64848277      -1.57452503       0.34630364      -0.12217177      -0.39181581       0.12675133
O       -0.08072164       4.08582405       1.97571828       0.28334416      -0.83349090      -0.03595944       0.00955072       0.62055117       0.39767879
Mg       2.07162449       6.30140991       0.04747295      -0.00686284      -1.09595862      -0.80398954      -0.45017600      -0.20898530      -1.03187621
O        0.01932016       6.29157248      -0.09869597       0.71500990      -0.44225240      -0.01931078      -0.51772630      -0.27794424       0.47432610
Mg      -0.12409496       4.20555609       4.06558382      -0.06676735       0.09240197       0.34292858       0.88911963      -0.92248738       0.37286308
O        2.11527668       4.16100905       4.11455369      -0.26065860      -0.25573566      -0.24975526      -0.27668697       0.19790819      -0.09372096
Mg      -0.01086741       6.26544547       6.21591774      -0.04699232      -0.69472568      -0.52898215      -0.30447817      -0.09098379       0.74103940
O        2.00919575       6.24087179       6.28253427       0.50824434       0.08719055      -0.43537176       0.36519718       0.09567837      -0.41948032
Ni       2.03021977       4.20004491       6.25791482      -0.11369964       0.36817259      -1.02227816       0.37447810      -0.40648574      -0.39931339
O       -0.01368185       4.11486355       6.16913127      -0.04375374       0.65417153      -0.40106487      -0.11304303       0.74668890       0.17957583
Ni       2.06434660       6.25208947       4.10720409      -0.32049673      -0.28634221      -1.16814114      -0.07838044      -0.28062713       0.42648149
O       -0.07954925       6.19435427       4.23529528      -0.50285583      -0.07021008      -0.29770040       0.08573314       0.55679017      -0.79702812
Zn       4.11765204      -0.06528637      -0.07393527      -1.02249375      -1.19288017       0.46794529       0.37046611       0.14041319       0.11881280
O        6.27883903      -0.09450839       0.02142078      -0.30575268       0.14417330      -1.23336816      -0.13261633       0.02463261      -0.62066084
Zn       4.18107879       2.03421258       2.00661708      -0.87718737      -0.87137871      -1.00605104       0.21991628       0.31336069      -0.15621585
O        6.42381832       1.93521533       2.04073831      -0.83989553       0.23024888      -0.90488518      -1.05797374       0.76711011       0.17629015
Mg       6.29144952      -0.05886574       2.02321159       0.15756947      -0.89240042       0.07050207      -0.11226340      -0.00564012       0.56041026
O        4.17659611      -0.00531692       2.10104985       0.94306087       0.45849180       0.34057311       0.07464024      -0.69231713      -0.17163652
Zn       6.28620929       2.08049083      -0.08688941      -1.16757556       0.62563542       0.77517675      -0.18698594      -0.08689047       0.21494067
O        4.12622493       2.06530016      -0.10705083       0.04997382      -0.09324324      -0.31386366       0.31633729       0.04935856       0.36859968
Ni       4.19945109      -0.09981739       4.18066056       0.33126866       0.50123576       0.15456522      -0.06029840       0.12229887      -0.36303991
O        6.29541127       0.00090962       4.22705309      -0.95498737      -0.90986153      -1.18036796      -0.07850575      -0.73524714      -0.45416251
Zn       4.18133690       1.99098348       6.18753255      -0.32576392       1.03313997      -0.89963554      -0.10542770       0.42112380       0.25267670
O        6.28258093       2.10131204       6.19250080      -0.19813111      -0.05142210       0.17761867      -0.07341753      -0.20126030       0.23867026
Cu       6.29959334      -0.08622611       6.26480360      -1.00746828      -0.39908537      -2.99710398       0.09802473      -0.04113478       0.32741752
O        4.17531655      -0.05367209       6.23083853      -0.56116413       0.26750128      -0.56503984       0.01083186      -0.06589893      -0.08247977
Ni       6.27039605       1.98931396       4.16927498      -1.79586433      -1.06693995       0.16500525       0.37638897       0.56292284      -0.64647686
O        4.19104832       2.00202926       4.09394690      -0.32594126       0.69588239       0.25899894       0.10217885       0.19758227       0.01604947
Cu       4.06911305       4.19702156      -0.15632017      -0.11746945      -0.20407922       1.50033858       0.41261184      -0.38768664       0.31443065
O        6.40803991       4.15867335      -0.09964129      -0.10399817       0.12279636       0.53835247      -0.58431000       0.19021446       0.25545606
Zn       4.13455095       6.18867147       2.04239486      -0.29767428       0.77016520      -0.58333724       0.18170834       0.65217882      -0.00540690
O        6.22951042       6.25230701       2.10484290      -0.03302597       0.31992468      -0.55041603       0.12826395       0.37114584      -0.44309261
Co       6.27665090       4.16034948       2.04237555       0.55195422       0.60109876       1.28403292       0.10083503      -0.61839461      -0.39880836
O        4.24421124       4.19004700       2.00268973       0.46867871       0.09084580      -0.63313261      -0.11822694      -0.51396370       0.00061423
Mg       6.26195871       6.22857999      -0.01159601       0.89355755      -0.10468947       0.95920856       0.10057649      -0.17236981      -0.09415451
O        4.10734691       6.23119167      -0.12637322      -0.12183721       0.17038135       0.46039025       0.46635079       0.09888545       0.58707529
Ni       4.16041061       4.12982683       4.10595622      -0.43116311       1.17078473      -1.10459891       0.05007403      -0.07809587       0.30989724
O        6.28105586       4.09330940       4.11806689       0.45417807       0.39563086       0.03442513      -0.41026965       0.13518482       0.10203196
Cu       4.07920208       6.24152146       6.28665724       0.11539843      -1.42561008       0.46278595       0.34117436      -0.15827447      -0.29222059
O        6.28338840       6.21876923       6.41348993       0.08573620      -0.71115634      -1.10549259       0.00582795      -0.08109695      -1.17169845
Co       6.26255908       4.16972199       6.21373050       0.38379491      -0.02341049      -0.44721561      -0.08525664       0.21444443       0.28905246
O        4.11665549       4.08295920       6.24298312       0.06819173      -0.07683395      -0.77848757       0.16656506       0.23589253      -0.36969668
Co       6.22129645       6.22007762       4.16551486      -0.34165801      -0.27784078      -2.05026929       0.00729994       0.17243168       0.49309880
O        4.13030156       6.21674806       4.20429186      -0.27023428      -0.34237210      -0.44582096       0.17654468       0.07897973       0.01661881
